 Gaussian 09, Revision D.01,
 Gaussian 09:  ES64L-G09RevD.01 24-Apr-2013

 --------------------------------------
 # Pop=nbo6read b3lyp/6-31G(d) nmr=giao
 --------------------------------------

 ---------------------------------
 Cyclopentene_ringclose_TS_mod_opt
 ---------------------------------
 Symbolic Z-matrix:
 Charge = -1 Multiplicity = 1

                          Input orientation:
 ---------------------------------------------------------------------
 Center     Atomic      Atomic             Coordinates (Angstroms)
 Number     Number       Type             X           Y           Z
 ---------------------------------------------------------------------
      1          6           0        0.144638   -1.174463    0.300652
      2          1           0        0.127230   -2.234376    0.003853
      3          1           0        0.136855   -1.139809    1.400405
      4          6           0        1.277576   -0.398949   -0.259326
      5          1           0        1.527024   -0.606739   -1.303647
      6          6           0        1.276494    0.922225    0.137032
      7          1           0        1.775156    1.694824   -0.450285
      8          6           0       -1.220387   -0.441850   -0.180895
      9          1           0       -2.034255   -0.950706    0.361708
     10          6           0       -1.186106    1.038289    0.000218
     11          1           0       -1.434283    1.653840   -0.866301
     12          1           0       -1.343292   -0.707180   -1.241497
     13          1           0       -1.596794    1.428856    0.938139
     14          1           0        1.089074    1.189777    1.171535
     15          0           0        0.092729   -0.032717   -2.000051
     16          0           0        0.088444   -0.029996   -1.750103
     17          0           0        0.084158   -0.027275   -1.500155
     18          0           0        0.079872   -0.024554   -1.250206
     19          0           0        0.075586   -0.021833   -1.000258
     20          0           0        0.071300   -0.019112   -0.750309
     21          0           0        0.067015   -0.016391   -0.500361
     22          0           0        0.062729   -0.013670   -0.250412
     23          0           0        0.058443   -0.010950   -0.000464
     24          0           0        0.054157   -0.008229    0.249485
     25          0           0        0.049871   -0.005508    0.499433
     26          0           0        0.045586   -0.002787    0.749382
     27          0           0        0.041300   -0.000066    0.999330
     28          0           0        0.037014    0.002655    1.249278
     29          0           0        0.032728    0.005376    1.499227
     30          0           0        0.028442    0.008097    1.749175
     31          0           0        0.024157    0.010818    1.999124
 ---------------------------------------------------------------------

 SCF Done:  E(RB3LYP) =  -195.818260403     A.U. after   16 cycles

      1  C    Isotropic =   135.0393   Anisotropy =    48.4658

      2  H    Isotropic =    29.7276   Anisotropy =     8.2724

      3  H    Isotropic =    31.7871   Anisotropy =    11.7959

      4  C    Isotropic =   127.1812   Anisotropy =    63.0942

      5  H    Isotropic =    31.8312   Anisotropy =     8.5846

      6  C    Isotropic =   102.5868   Anisotropy =    86.2525

      7  H    Isotropic =    27.8622   Anisotropy =     7.9978

      8  C    Isotropic =   154.6386   Anisotropy =    27.8747

      9  H    Isotropic =    30.6876   Anisotropy =     7.2012

     10  C    Isotropic =   168.8647   Anisotropy =    15.9259

     11  H    Isotropic =    32.7460   Anisotropy =    10.4435

     12  H    Isotropic =    32.9618   Anisotropy =    14.2489

     13  H    Isotropic =    33.5618   Anisotropy =    11.9641

     14  H    Isotropic =    28.6215   Anisotropy =    11.7135

     15  Bq   Isotropic =     2.6426   Anisotropy =    11.9734

     16  Bq   Isotropic =     3.7124   Anisotropy =    13.2191

     17  Bq   Isotropic =     5.1245   Anisotropy =    14.5211

     18  Bq   Isotropic =     6.8465   Anisotropy =    15.9096

     19  Bq   Isotropic =     8.7426   Anisotropy =    17.2867

     20  Bq   Isotropic =    10.5511   Anisotropy =    18.3545

     21  Bq   Isotropic =    11.9569   Anisotropy =    18.6364

     22  Bq   Isotropic =    12.7257   Anisotropy =    17.4778

     23  Bq   Isotropic =    12.7313   Anisotropy =    14.8630

     24  Bq   Isotropic =    11.9497   Anisotropy =    12.8599

     25  Bq   Isotropic =    10.5554   Anisotropy =    12.9953

     26  Bq   Isotropic =     8.8685   Anisotropy =    13.7198

     27  Bq   Isotropic =     7.1648   Anisotropy =    13.7556

     28  Bq   Isotropic =     5.5993   Anisotropy =    13.2772

     29  Bq   Isotropic =     4.2228   Anisotropy =    12.7234

     30  Bq   Isotropic =     3.0542   Anisotropy =    12.1970

     31  Bq   Isotropic =     2.1249   Anisotropy =    11.5455

 Alpha  occ. eigenvalues --   -9.97547  -9.97220  -9.96600  -9.92977  -9.91301
 Alpha  occ. eigenvalues --   -0.57681  -0.49812  -0.44399  -0.34902  -0.33099
 Alpha  occ. eigenvalues --   -0.25326  -0.22689  -0.18905  -0.17815  -0.14887
 Alpha  occ. eigenvalues --   -0.12522  -0.12173  -0.11371  -0.01317   0.08981
 Alpha virt. eigenvalues --    0.24530   0.28895   0.31342   0.32505   0.33767
 Alpha virt. eigenvalues --    0.34555   0.36533   0.37474   0.39369   0.42571
 Alpha virt. eigenvalues --    0.43674   0.48571   0.50240   0.55028   0.71414

 Mulliken charges:
               1
     1  C   -0.253501
     2  H    0.028721
     3  H    0.062268
     4  C   -0.167588
     5  H    0.004123
     6  C   -0.253064
     7  H    0.032184
     8  C   -0.207879
     9  H    0.035337
    10  C   -0.409555
    11  H    0.009309
    12  H    0.051447
    13  H   -0.000203
    14  H    0.068400
    15  Bq   0.000000
    16  Bq   0.000000
    17  Bq   0.000000
    18  Bq   0.000000
    19  Bq   0.000000
    20  Bq   0.000000
    21  Bq   0.000000
    22  Bq   0.000000
    23  Bq   0.000000
    24  Bq   0.000000
    25  Bq   0.000000
    26  Bq   0.000000
    27  Bq   0.000000
    28  Bq   0.000000
    29  Bq   0.000000
    30  Bq   0.000000
    31  Bq   0.000000
 Sum of Mulliken charges =  -1.00000

 Dipole moment (field-independent basis, Debye):
    X=             -0.1539    Y=             -1.2130    Z=              0.0584  Tot=              1.2241
 Quadrupole moment (field-independent basis, Debye-Ang):
   XX=            -47.6511   YY=            -42.5626   ZZ=            -36.1881
   XY=              3.1631   XZ=             -0.5145   YZ=              0.1854

 Summary of Natural Population Analysis:

                                     Natural Population
             Natural    ---------------------------------------------
  Atom No    Charge        Core      Valence    Rydberg      Total
 --------------------------------------------------------------------
    C  1   -0.46447      1.99932     4.45142    0.01373     6.46447
    H  2    0.18291      0.00000     0.81444    0.00265     0.81709
    H  3    0.18904      0.00000     0.80867    0.00230     0.81096
    C  4   -0.44498      1.99903     4.42509    0.02086     6.44498
    H  5    0.16435      0.00000     0.83397    0.00168     0.83565
    C  6   -0.45177      1.99921     4.43696    0.01561     6.45177
    H  7    0.17577      0.00000     0.82264    0.00159     0.82423
    C  8   -0.46731      1.99931     4.45528    0.01272     6.46731
    H  9    0.17886      0.00000     0.81866    0.00248     0.82114
    C 10   -0.75274      1.99934     4.73203    0.02137     6.75274
    H 11    0.16288      0.00000     0.83617    0.00094     0.83712
    H 12    0.18700      0.00000     0.81075    0.00226     0.81300
    H 13    0.14988      0.00000     0.84873    0.00139     0.85012
    H 14    0.19057      0.00000     0.80812    0.00131     0.80943
   gh 15    0.00000      0.00000     0.00000    0.00000     0.00000
   gh 16    0.00000      0.00000     0.00000    0.00000     0.00000
   gh 17    0.00000      0.00000     0.00000    0.00000     0.00000
   gh 18    0.00000      0.00000     0.00000    0.00000     0.00000
   gh 19    0.00000      0.00000     0.00000    0.00000     0.00000
   gh 20    0.00000      0.00000     0.00000    0.00000     0.00000
   gh 21    0.00000      0.00000     0.00000    0.00000     0.00000
   gh 22    0.00000      0.00000     0.00000    0.00000     0.00000
   gh 23    0.00000      0.00000     0.00000    0.00000     0.00000
   gh 24    0.00000      0.00000     0.00000    0.00000     0.00000
   gh 25    0.00000      0.00000     0.00000    0.00000     0.00000
   gh 26    0.00000      0.00000     0.00000    0.00000     0.00000
   gh 27    0.00000      0.00000     0.00000    0.00000     0.00000
   gh 28    0.00000      0.00000     0.00000    0.00000     0.00000
   gh 29    0.00000      0.00000     0.00000    0.00000     0.00000
   gh 30    0.00000      0.00000     0.00000    0.00000     0.00000
   gh 31    0.00000      0.00000     0.00000    0.00000     0.00000
 ====================================================================
 * Total * -1.00000      9.99620    29.90292    0.10087    40.00000

 1\1\GINC-ALPHAOMEGA\SP\RB3LYP\6-31G(d)\C5H9(1-)\RPATON\18-Apr-2014\0\\
 # Pop=nbo6read b3lyp/6-31G(d) nmr=giao\\Cyclopentene_ringclose_TS_mod_
 opt\\-1,1\C,0,0.144638,-1.174463,0.300652\H,0,0.12723,-2.234376,0.0038
 53\H,0,0.136855,-1.139809,1.400405\C,0,1.277576,-0.398949,-0.259326\H,
 0,1.527024,-0.606739,-1.303647\C,0,1.276494,0.922225,0.137032\H,0,1.77
 5156,1.694824,-0.450285\C,0,-1.220387,-0.44185,-0.180895\H,0,-2.034255
 ,-0.950706,0.361708\C,0,-1.186106,1.038289,0.000218\H,0,-1.434283,1.65
 384,-0.866301\H,0,-1.343292,-0.70718,-1.241497\H,0,-1.596794,1.428856,

 Normal termination of Gaussian 09 at Fri Apr 18 00:58:02 2014.
