 Gaussian 09, Revision D.01,
 Gaussian 09:  ES64L-G09RevD.01 24-Apr-2013

 --------------------------------------
 # Pop=nbo6read b3lyp/6-31G(d) nmr=giao
 --------------------------------------

 ----------------------------
 Diketone_enolization_TS_mod3
 ----------------------------
 Symbolic Z-matrix:
 Charge =  0 Multiplicity = 1

                          Input orientation:
 ---------------------------------------------------------------------
 Center     Atomic      Atomic             Coordinates (Angstroms)
 Number     Number       Type             X           Y           Z
 ---------------------------------------------------------------------
      1          6           0        1.200366   -0.057999   -0.001896
      2          6           0        0.000001   -0.785583   -0.000014
      3          6           0       -1.200363   -0.058004    0.001883
      4          6           0        2.546296   -0.716087    0.000297
      5          1           0        2.467540   -1.803322   -0.049049
      6          1           0        3.127542   -0.351634   -0.851156
      7          1           0        3.083446   -0.431823    0.909931
      8          6           0       -2.546295   -0.716087   -0.000282
      9          1           0       -3.127438   -0.351816    0.851322
     10          1           0       -3.083560   -0.431629   -0.909786
     11          1           0       -2.467528   -1.803331    0.048833
     12          1           0        0.000002   -1.867131   -0.000026
     13          8           0        1.175890    1.223884   -0.001420
     14          8           0       -1.175893    1.223882    0.001422
     15          1           0       -0.000008    1.461121   -0.000001
     16          0           0       -0.005581    0.501241   -4.000000
     17          0           0       -0.005233    0.501240   -3.750001
     18          0           0       -0.004884    0.501238   -3.500001
     19          0           0       -0.004535    0.501237   -3.250001
     20          0           0       -0.004186    0.501235   -3.000001
     21          0           0       -0.003838    0.501234   -2.750002
     22          0           0       -0.003489    0.501232   -2.500002
     23          0           0       -0.003140    0.501230   -2.250002
     24          0           0       -0.002791    0.501229   -2.000002
     25          0           0       -0.002442    0.501227   -1.750003
     26          0           0       -0.002094    0.501226   -1.500003
     27          0           0       -0.001745    0.501224   -1.250003
     28          0           0       -0.001396    0.501223   -1.000003
     29          0           0       -0.001047    0.501221   -0.750004
     30          0           0       -0.000699    0.501220   -0.500004
     31          0           0       -0.000350    0.501218   -0.250004
     32          0           0       -0.000001    0.501217   -0.000004
     33          0           0        0.000348    0.501215    0.249995
     34          0           0        0.000696    0.501214    0.499995
     35          0           0        0.001045    0.501212    0.749995
     36          0           0        0.001394    0.501211    0.999995
     37          0           0        0.001743    0.501209    1.249994
     38          0           0        0.002091    0.501208    1.499994
     39          0           0        0.002440    0.501206    1.749994
     40          0           0        0.002789    0.501205    1.999994
     41          0           0        0.003138    0.501203    2.249993
     42          0           0        0.003486    0.501202    2.499993
     43          0           0        0.003835    0.501200    2.749993
     44          0           0        0.004184    0.501199    2.999993
     45          0           0        0.004533    0.501197    3.249993
     46          0           0        0.004881    0.501196    3.499992
     47          0           0        0.005230    0.501194    3.749992
     48          0           0        0.005579    0.501193    3.999992
 ---------------------------------------------------------------------

 SCF Done:  E(RB3LYP) =  -345.795406683     A.U. after   13 cycles

      1  C    Isotropic =     5.9768   Anisotropy =   164.9504

      2  C    Isotropic =    95.4918   Anisotropy =    93.1120

      3  C    Isotropic =     5.9775   Anisotropy =   164.9494

      4  C    Isotropic =   166.6164   Anisotropy =    37.0619

      5  H    Isotropic =    30.8082   Anisotropy =     5.4827

      6  H    Isotropic =    30.2560   Anisotropy =     6.5647

      7  H    Isotropic =    30.2184   Anisotropy =     6.5751

      8  C    Isotropic =   166.6165   Anisotropy =    37.0617

      9  H    Isotropic =    30.2559   Anisotropy =     6.5648

     10  H    Isotropic =    30.2185   Anisotropy =     6.5751

     11  H    Isotropic =    30.8082   Anisotropy =     5.4827

     12  H    Isotropic =    27.1646   Anisotropy =     7.1416

     13  O    Isotropic =    53.8781   Anisotropy =   440.8524

     14  O    Isotropic =    53.8861   Anisotropy =   440.8402

     15  H    Isotropic =    11.6855   Anisotropy =    26.4290

     16  Bq   Isotropic =     0.1753   Anisotropy =     2.5176

     17  Bq   Isotropic =     0.2081   Anisotropy =     2.8510

     18  Bq   Isotropic =     0.2483   Anisotropy =     3.2366

     19  Bq   Isotropic =     0.2981   Anisotropy =     3.6812

     20  Bq   Isotropic =     0.3600   Anisotropy =     4.1890

     21  Bq   Isotropic =     0.4379   Anisotropy =     4.7562

     22  Bq   Isotropic =     0.5384   Anisotropy =     5.3587

     23  Bq   Isotropic =     0.6731   Anisotropy =     5.9292

     24  Bq   Isotropic =     0.8566   Anisotropy =     6.3217

     25  Bq   Isotropic =     1.0938   Anisotropy =     6.2703

     26  Bq   Isotropic =     1.3484   Anisotropy =     5.3491

     27  Bq   Isotropic =     1.5089   Anisotropy =     2.9419

     28  Bq   Isotropic =     1.3899   Anisotropy =     2.3175

     29  Bq   Isotropic =     0.8184   Anisotropy =     5.8653

     30  Bq   Isotropic =    -0.1765   Anisotropy =    10.6358

     31  Bq   Isotropic =    -1.2015   Anisotropy =    15.1738

     32  Bq   Isotropic =    -1.6471   Anisotropy =    17.1020

     33  Bq   Isotropic =    -1.2014   Anisotropy =    15.1739

     34  Bq   Isotropic =    -0.1765   Anisotropy =    10.6360

     35  Bq   Isotropic =     0.8184   Anisotropy =     5.8654

     36  Bq   Isotropic =     1.3900   Anisotropy =     2.3176

     37  Bq   Isotropic =     1.5089   Anisotropy =     2.9418

     38  Bq   Isotropic =     1.3484   Anisotropy =     5.3491

     39  Bq   Isotropic =     1.0939   Anisotropy =     6.2703

     40  Bq   Isotropic =     0.8567   Anisotropy =     6.3216

     41  Bq   Isotropic =     0.6731   Anisotropy =     5.9292

     42  Bq   Isotropic =     0.5384   Anisotropy =     5.3587

     43  Bq   Isotropic =     0.4379   Anisotropy =     4.7561

     44  Bq   Isotropic =     0.3600   Anisotropy =     4.1890

     45  Bq   Isotropic =     0.2981   Anisotropy =     3.6812

     46  Bq   Isotropic =     0.2483   Anisotropy =     3.2366

     47  Bq   Isotropic =     0.2080   Anisotropy =     2.8510

     48  Bq   Isotropic =     0.1753   Anisotropy =     2.5176

 Alpha  occ. eigenvalues --  -19.15061 -19.15061 -10.27503 -10.27503 -10.19343
 Alpha  occ. eigenvalues --  -10.19343 -10.17592  -1.07269  -1.02401  -0.79145
 Alpha  occ. eigenvalues --   -0.75330  -0.71504  -0.58195  -0.57828  -0.49606
 Alpha  occ. eigenvalues --   -0.47499  -0.45448  -0.43785  -0.42698  -0.42011
 Alpha  occ. eigenvalues --   -0.41117  -0.38760  -0.37768  -0.35557  -0.34564
 Alpha  occ. eigenvalues --   -0.25818  -0.23579
 Alpha virt. eigenvalues --   -0.04442   0.08035   0.09876   0.11583   0.12647
 Alpha virt. eigenvalues --    0.15560   0.17349   0.17530   0.17921   0.21919
 Alpha virt. eigenvalues --    0.22939   0.23016   0.27956   0.35438   0.41565

 Mulliken charges:
               1
     1  C    0.435800
     2  C   -0.306719
     3  C    0.435798
     4  C   -0.517788
     5  H    0.161365
     6  H    0.184415
     7  H    0.184788
     8  C   -0.517786
     9  H    0.184416
    10  H    0.184787
    11  H    0.161364
    12  H    0.127689
    13  O   -0.598432
    14  O   -0.598434
    15  H    0.478737
    16  Bq   0.000000
    17  Bq   0.000000
    18  Bq   0.000000
    19  Bq   0.000000
    20  Bq   0.000000
    21  Bq   0.000000
    22  Bq   0.000000
    23  Bq   0.000000
    24  Bq   0.000000
    25  Bq   0.000000
    26  Bq   0.000000
    27  Bq   0.000000
    28  Bq   0.000000
    29  Bq   0.000000
    30  Bq   0.000000
    31  Bq   0.000000
    32  Bq   0.000000
    33  Bq   0.000000
    34  Bq   0.000000
    35  Bq   0.000000
    36  Bq   0.000000
    37  Bq   0.000000
    38  Bq   0.000000
    39  Bq   0.000000
    40  Bq   0.000000
    41  Bq   0.000000
    42  Bq   0.000000
    43  Bq   0.000000
    44  Bq   0.000000
    45  Bq   0.000000
    46  Bq   0.000000
    47  Bq   0.000000
    48  Bq   0.000000
 Sum of Mulliken charges =   0.00000

 Dipole moment (field-independent basis, Debye):
    X=              0.0000    Y=             -2.9172    Z=              0.0000  Tot=              2.9172
 Quadrupole moment (field-independent basis, Debye-Ang):
   XX=            -37.1474   YY=            -43.9322   ZZ=            -41.7469
   XY=              0.0000   XZ=              0.0562   YZ=              0.0000

 Summary of Natural Population Analysis:

                                     Natural Population
             Natural    ---------------------------------------------
  Atom No    Charge        Core      Valence    Rydberg      Total
 --------------------------------------------------------------------
    C  1    0.50643      1.99912     3.46800    0.02645     5.49357
    C  2   -0.50213      1.99888     4.49094    0.01232     6.50213
    C  3    0.50643      1.99912     3.46801    0.02645     5.49357
    C  4   -0.73121      1.99935     4.72383    0.00803     6.73121
    H  5    0.24005      0.00000     0.75925    0.00070     0.75995
    H  6    0.25992      0.00000     0.73893    0.00115     0.74008
    H  7    0.26014      0.00000     0.73879    0.00107     0.73986
    C  8   -0.73121      1.99935     4.72383    0.00803     6.73121
    H  9    0.25992      0.00000     0.73893    0.00115     0.74008
    H 10    0.26014      0.00000     0.73879    0.00107     0.73986
    H 11    0.24005      0.00000     0.75925    0.00070     0.75995
    H 12    0.24359      0.00000     0.75577    0.00063     0.75641
    O 13   -0.66447      1.99977     6.64954    0.01516     8.66447
    O 14   -0.66447      1.99977     6.64955    0.01516     8.66447
    H 15    0.51684      0.00000     0.47951    0.00365     0.48316
   gh 16    0.00000      0.00000     0.00000    0.00000     0.00000
   gh 17    0.00000      0.00000     0.00000    0.00000     0.00000
   gh 18    0.00000      0.00000     0.00000    0.00000     0.00000
   gh 19    0.00000      0.00000     0.00000    0.00000     0.00000
   gh 20    0.00000      0.00000     0.00000    0.00000     0.00000
   gh 21    0.00000      0.00000     0.00000    0.00000     0.00000
   gh 22    0.00000      0.00000     0.00000    0.00000     0.00000
   gh 23    0.00000      0.00000     0.00000    0.00000     0.00000
   gh 24    0.00000      0.00000     0.00000    0.00000     0.00000
   gh 25    0.00000      0.00000     0.00000    0.00000     0.00000
   gh 26    0.00000      0.00000     0.00000    0.00000     0.00000
   gh 27    0.00000      0.00000     0.00000    0.00000     0.00000
   gh 28    0.00000      0.00000     0.00000    0.00000     0.00000
   gh 29    0.00000      0.00000     0.00000    0.00000     0.00000
   gh 30    0.00000      0.00000     0.00000    0.00000     0.00000
   gh 31    0.00000      0.00000     0.00000    0.00000     0.00000
   gh 32    0.00000      0.00000     0.00000    0.00000     0.00000
   gh 33    0.00000      0.00000     0.00000    0.00000     0.00000
   gh 34    0.00000      0.00000     0.00000    0.00000     0.00000
   gh 35    0.00000      0.00000     0.00000    0.00000     0.00000
   gh 36    0.00000      0.00000     0.00000    0.00000     0.00000
   gh 37    0.00000      0.00000     0.00000    0.00000     0.00000
   gh 38    0.00000      0.00000     0.00000    0.00000     0.00000
   gh 39    0.00000      0.00000     0.00000    0.00000     0.00000
   gh 40    0.00000      0.00000     0.00000    0.00000     0.00000
   gh 41    0.00000      0.00000     0.00000    0.00000     0.00000
   gh 42    0.00000      0.00000     0.00000    0.00000     0.00000
   gh 43    0.00000      0.00000     0.00000    0.00000     0.00000
   gh 44    0.00000      0.00000     0.00000    0.00000     0.00000
   gh 45    0.00000      0.00000     0.00000    0.00000     0.00000
   gh 46    0.00000      0.00000     0.00000    0.00000     0.00000
   gh 47    0.00000      0.00000     0.00000    0.00000     0.00000
   gh 48    0.00000      0.00000     0.00000    0.00000     0.00000
 ====================================================================
 * Total *  0.00000     13.99536    39.88294    0.12171    54.00000

 Normal termination of Gaussian 09 at Fri Apr 18 01:13:09 2014.
